 Gaussian 16, Revision A.03,
 Gaussian 16:  ES64L-G16RevA.03 25-Dec-2016

 ----------------------------------------------------------------------
 # opt=(calcfc,tight,modredundant,noeigentest) freq cbs-qb3 scf=qc geom
 =connectivity ccsd=maxcyc=1000 optcyc=100
 ----------------------------------------------------------------------

 -------------------
 Title Card Required
 -------------------
 Symbolic Z-matrix:
 Charge =  0 Multiplicity = 2

 SCF Done:  E(UB3LYP) =  -268.977445191     a.u. after    8 cycles
 Optimization completed.
    -- Stationary point found.
 SCF Done:  E(UB3LYP) =  -268.974457404     a.u. after   38 cycles
 SCF Done:  E(UB3LYP) =  -268.977141552     a.u. after   21 cycles
 SCF Done:  E(UB3LYP) =  -268.977206494     a.u. after    5 cycles
 SCF Done:  E(UB3LYP) =  -268.977207654     a.u. after    3 cycles
 SCF Done:  E(UB3LYP) =  -268.977207660     a.u. after    2 cycles
 SCF Done:  E(UB3LYP) =  -268.977207661     a.u. after    2 cycles
 Optimization completed.
 SCF Done:  E(UB3LYP) =  -268.973921229     a.u. after   20 cycles
 SCF Done:  E(UB3LYP) =  -268.976638563     a.u. after   23 cycles
 SCF Done:  E(UB3LYP) =  -268.976707628     a.u. after    5 cycles
 SCF Done:  E(UB3LYP) =  -268.974151948     a.u. after   23 cycles
 SCF Done:  E(UB3LYP) =  -268.976557210     a.u. after   16 cycles
 SCF Done:  E(UB3LYP) =  -268.976585149     a.u. after    5 cycles
 SCF Done:  E(UB3LYP) =  -268.976586035     a.u. after    3 cycles
 SCF Done:  E(UB3LYP) =  -268.976586294     a.u. after    3 cycles
 SCF Done:  E(UB3LYP) =  -268.976586295     a.u. after    2 cycles
    -- Stationary point found.
 Normal termination of Gaussian 16 at Mon Feb 12 23:29:04 2018.

 ---------------------------------------------------------
 #N Geom=AllCheck Guess=TCheck SCRF=Check B3LYP/CBSB7 Freq
 ---------------------------------------------------------

 Structure from the checkpoint file:  "/rc_scratch/jasm3285/Gau-68929.chk"
 -------------------
 Title Card Required
 -------------------
 Charge =  0 Multiplicity = 2

 SCF Done:  E(UB3LYP) =  -268.976586295     a.u. after    1 cycles

  Exact polarizability:  47.561  -0.483  42.080  -0.119  -0.175  39.401
 Approx polarizability:  60.471  -1.414  57.591   1.698  -0.093  54.183

                      1                      2                      3
                      A                      A                      A
 Frequencies --    113.4574               231.5642               248.9870
 Red. masses --      3.0878                 1.5146                 1.1802
 Frc consts  --      0.0234                 0.0479                 0.0431
 IR Inten    --      3.6952                 8.7716                32.9088

                      4                      5                      6
                      A                      A                      A
 Frequencies --    283.5651               371.4066               401.6849
 Red. masses --      1.5259                 3.0197                 1.7060
 Frc consts  --      0.0723                 0.2454                 0.1622
 IR Inten    --     72.9096                 7.7868                14.4146

                      7                      8                      9
                      A                      A                      A
 Frequencies --    513.1981               596.0258               845.7975
 Red. masses --      3.2818                 2.4890                 2.1803
 Frc consts  --      0.5092                 0.5210                 0.9190
 IR Inten    --      6.1208                32.2025                12.4888

                     10                     11                     12
                      A                      A                      A
 Frequencies --    931.8645              1007.0933              1067.1168
 Red. masses --      2.0071                 1.6693                 4.4404
 Frc consts  --      1.0269                 0.9975                 2.9792
 IR Inten    --     15.6867                28.9205                12.2194

                     13                     14                     15
                      A                      A                      A
 Frequencies --   1084.4380              1128.6318              1184.3369
 Red. masses --      1.6944                 2.3445                 1.4506
 Frc consts  --      1.1740                 1.7596                 1.1988
 IR Inten    --     21.6341                51.2640                 3.2400

                     16                     17                     18
                      A                      A                      A
 Frequencies --   1267.6988              1335.8282              1352.4548
 Red. masses --      1.1340                 1.3653                 1.0838
 Frc consts  --      1.0737                 1.4354                 1.1680
 IR Inten    --     38.9511                18.6827                27.5827

                     19                     20                     21
                      A                      A                      A
 Frequencies --   1369.1288              1410.4792              1421.7146
 Red. masses --      1.2838                 1.3019                 1.4546
 Frc consts  --      1.4179                 1.5260                 1.7323
 IR Inten    --     11.6214                18.0773                 5.0512

                     22                     23                     24
                      A                      A                      A
 Frequencies --   1494.3691              1497.6141              2893.0416
 Red. masses --      1.0738                 1.0655                 1.0622
 Frc consts  --      1.4128                 1.4080                 5.2379
 IR Inten    --      6.4505                 4.9951                13.4214

                     25                     26                     27
                      A                      A                      A
 Frequencies --   2929.1962              2986.4134              3020.3634
 Red. masses --      1.0835                 1.0847                 1.0351
 Frc consts  --      5.4774                 5.6999                 5.5633
 IR Inten    --      7.5321                54.4137                15.7505

                     28                     29                     30
                      A                      A                      A
 Frequencies --   3081.9877              3093.0871              3830.8838
 Red. masses --      1.1013                 1.1024                 1.0664
 Frc consts  --      6.1636                 6.2138                 9.2205
 IR Inten    --     32.0841                31.2573                22.1378

 - Thermochemistry -
 -------------------
 Temperature   298.150 Kelvin.  Pressure   1.00000 Atm.
 Atom     1 has atomic number  6 and mass  12.00000

 Molecular mass:    75.04460 amu.
 Principal axes and moments of inertia in atomic units:
                           1         2         3
     Eigenvalues --   213.74025 493.48690 643.20241
           X            0.99981  -0.01500  -0.01230
           Y            0.01467   0.99954  -0.02644
           Z            0.01270   0.02625   0.99957
 This molecule is an asymmetric top.
 Rotational symmetry number  1.
 Rotational temperatures (Kelvin)      0.40523     0.17551     0.13466
 Rotational constants (GHZ):           8.44362     3.65712     2.80587
 Zero-point vibrational energy     257157.8 (Joules/Mol)
                                   61.46219 (Kcal/Mol)
 Warning -- explicit consideration of   8 degrees of freedom as
           vibrations may cause significant error
 Vibrational temperatures:    163.24   333.17   358.24   407.99   534.37
          (Kelvin)            577.94   738.38   857.55  1216.91  1340.75
                             1448.98  1535.34  1560.26  1623.85  1704.00
                             1823.94  1921.96  1945.88  1969.87  2029.36
                             2045.53  2150.06  2154.73  4162.44  4214.46
                             4296.78  4345.63  4434.29  4450.26  5511.79

 Zero-point correction=                           0.097946 (Hartree/Particle)
 Thermal correction to Energy=                    0.104261
 Thermal correction to Enthalpy=                  0.105205
 Thermal correction to Gibbs Free Energy=         0.068061
 Sum of electronic and zero-point Energies=           -268.878640
 Sum of electronic and thermal Energies=              -268.872325
 Sum of electronic and thermal Enthalpies=            -268.871381
 Sum of electronic and thermal Free Energies=         -268.908525

                     E (Thermal)             CV                S
                      KCal/Mol        Cal/Mol-Kelvin    Cal/Mol-Kelvin
 Total                   65.425             21.791             78.177
 Electronic               0.000              0.000              1.377
 Translational            0.889              2.981             38.862
 Rotational               0.889              2.981             25.720
 Vibrational             63.647             15.830             12.217
 Vibration     1          0.607              1.938              3.209
 Vibration     2          0.653              1.793              1.867
 Vibration     3          0.662              1.764              1.738
 Vibration     4          0.682              1.704              1.512
 Vibration     5          0.743              1.531              1.074
 Vibration     6          0.767              1.466              0.956
 Vibration     7          0.868              1.221              0.626
 Vibration     8          0.954              1.040              0.457

 Optimization completed.
    -- Stationary point found.
 Normal termination of Gaussian 16 at Mon Feb 12 23:34:10 2018.

 -----------------------------------------------------------
 #N Geom=AllCheck Guess=TCheck SCRF=Check CCSD(T)/6-31+G(d')
 -----------------------------------------------------------

 Structure from the checkpoint file:  "/rc_scratch/jasm3285/Gau-68929.chk"
 -------------------
 Title Card Required
 -------------------
 Charge =  0 Multiplicity = 2

 SCF Done:  E(UHF) =  -267.349181782     a.u. after   14 cycles
 E2 =    -0.7320003228D+00 EUMP2 =    -0.26808118210504D+03
 CCSD(T)= -0.26815637990D+03
 894\CCSD(T)=-268.1563799\S2=0.758731\S2-1=0.752055\S2A=0.75006\RMSD=2.
 Normal termination of Gaussian 16 at Mon Feb 12 23:41:29 2018.

 -----------------------------------------------------
 #N Geom=AllCheck Guess=TCheck SCRF=Check MP4SDQ/CBSB4
 -----------------------------------------------------

 Structure from the checkpoint file:  "/rc_scratch/jasm3285/Gau-68929.chk"
 -------------------
 Title Card Required
 -------------------
 Charge =  0 Multiplicity = 2

 SCF Done:  E(UHF) =  -267.365861022     a.u. after    7 cycles
 E2 =    -0.7782051579D+00 EUMP2 =    -0.26814406617977D+03
 Normal termination of Gaussian 16 at Mon Feb 12 23:42:02 2018.

 ----------------------------------------------------------------------
 #N Geom=AllCheck Guess=TCheck SCRF=Check MP2/CBSB3 CBSExtrap=(NMin=10,
 MinPop)
 ----------------------------------------------------------------------

 Structure from the checkpoint file:  "/rc_scratch/jasm3285/Gau-68929.chk"
 -------------------
 Title Card Required
 -------------------
 Charge =  0 Multiplicity = 2

                         Standard orientation:
 ---------------------------------------------------------------------
 Center     Atomic      Atomic             Coordinates (Angstroms)
 Number     Number       Type             X           Y           Z
 ---------------------------------------------------------------------
      1          6           0       -1.622156    0.792402   -0.000398
      2          1           0       -1.753419    0.868037   -1.083651
      3          1           0       -1.543973    1.801424    0.415319
      4          1           0       -2.525163    0.335485    0.415913
      5          6           0       -0.390880   -0.047828    0.332538
      6          1           0       -0.240031   -0.083314    1.420997
      7          6           0        0.882452    0.528273   -0.288416
      8          1           0        0.842282    0.434953   -1.389553
      9          1           0        0.940819    1.619421   -0.098449
     10          8           0       -0.502923   -1.370668   -0.193080
     11          1           0       -1.336813   -1.744009    0.108090
     12          8           0        2.052898    0.012034    0.186704
 ---------------------------------------------------------------------

 SCF Done:  E(UHF) =  -267.445021836     a.u. after   37 cycles
 E2 =    -0.9352537454D+00 EUMP2 =    -0.26838027558103D+03
 E2(CBS)=      -1.031274 CBS-Int=       0.030663 OIii=       8.279483

 The electronic state is 2-A.
 Alpha  occ. eigenvalues --  -20.61755 -20.56338 -11.28925 -11.28147 -11.23102
 Alpha  occ. eigenvalues --   -1.41106  -1.36574  -1.04555  -0.92869  -0.81887
 Alpha  occ. eigenvalues --   -0.73025  -0.67334  -0.65551  -0.64070  -0.60693
 Alpha  occ. eigenvalues --   -0.55978  -0.55147  -0.52188  -0.50770  -0.45968
 Alpha  occ. eigenvalues --   -0.44898
 Alpha virt. eigenvalues --    0.03673   0.05368   0.05844   0.06227   0.08351
 Alpha virt. eigenvalues --    0.08617   0.09631   0.11964   0.13614   0.15595
 Alpha virt. eigenvalues --    0.16666   0.17375   0.17690   0.17812   0.18424

  Beta  occ. eigenvalues --  -20.57722 -20.56335 -11.28915 -11.28440 -11.23109
  Beta  occ. eigenvalues --   -1.36991  -1.27758  -1.03865  -0.91196  -0.80816
  Beta  occ. eigenvalues --   -0.70800  -0.64404  -0.62721  -0.59256  -0.56341
  Beta  occ. eigenvalues --   -0.55137  -0.54625  -0.51565  -0.45356  -0.43096
  Beta virt. eigenvalues --    0.03679   0.05368   0.05849   0.06236   0.07988
  Beta virt. eigenvalues --    0.08627   0.09357   0.10418   0.12106   0.13672
  Beta virt. eigenvalues --    0.15896   0.16715   0.17385   0.17812   0.17855

 Mulliken charges and spin densities:
               1          2
     1  C   -0.224928  -0.001285
     2  H    0.087060   0.000345
     3  H    0.051350   0.000373
     4  H    0.056333  -0.000623
     5  C    0.211736  -0.002391
     6  H    0.060507  -0.000215
     7  C   -0.154176  -0.100878
     8  H    0.103534   0.040866
     9  H    0.092597   0.080004
    10  O   -0.363137   0.002776
    11  H    0.257901  -0.000029
    12  O   -0.178778   0.981056
 Sum of Mulliken charges =   0.00000   1.00000

 Dipole moment (field-independent basis, Debye):
    X=             -2.9403    Y=              1.6478    Z=              0.3871  Tot=              3.3927
 Quadrupole moment (field-independent basis, Debye-Ang):
   XX=            -33.4780   YY=            -30.6182   ZZ=            -30.7900
   XY=              3.1777   XZ=             -1.8971   YZ=             -1.0689

 1\1\GINC-BNODE0305\SP\UMP2-FC\CBSB3\C3H7O2(2)\JASM3285\12-Feb-2018\0\\
 #N Geom=AllCheck Guess=TCheck SCRF=Check MP2/CBSB3 CBSExtrap=(NMin=10,
 MinPop)\\Title Card Required\\0,2\C,0,-1.1054741446,1.177500188,0.3412
 052684\H,0,-0.7102959628,1.8264277641,-0.4456334956\H,0,-0.9214773035,
 1.6492702575,1.3110699274\H,0,-2.1897980986,1.1120340743,0.2090474121\
 C,0,-0.4686873153,-0.2085622271,0.2624291211\H,0,-0.837600794,-0.84160
 13721,1.0821371321\C,0,1.0549319655,-0.1479962003,0.3797612652\H,0,1.4
 840611723,0.3435066823,-0.5130417939\H,0,1.3475982456,0.502150049,1.22

 Normal termination of Gaussian 16 at Mon Feb 12 23:46:43 2018.
