 Gaussian 16, Revision A.03,
 Gaussian 16:  ES64L-G16RevA.03 25-Dec-2016

 ----------------------------------------------------------------------
 # opt=(calcfc,verytight) freq cbs-qb3 nosymm geom=connectivity ccsd=ma
 xcyc=1000 optcyc=200 iop(7/33=1)
 ----------------------------------------------------------------------

 -------------------
 Title Card Required
 -------------------
 Symbolic Z-matrix:
 Charge =  0 Multiplicity = 2

 SCF Done:  E(UB3LYP) =  -1077.07164013     A.U. after   15 cycles
 SCF Done:  E(UB3LYP) =  -1077.08618472     A.U. after   13 cycles
 SCF Done:  E(UB3LYP) =  -1077.08927164     A.U. after   12 cycles
 SCF Done:  E(UB3LYP) =  -1077.08993951     A.U. after   12 cycles
 SCF Done:  E(UB3LYP) =  -1077.09016189     A.U. after   11 cycles
 SCF Done:  E(UB3LYP) =  -1077.09022536     A.U. after   10 cycles
 SCF Done:  E(UB3LYP) =  -1077.09024415     A.U. after   10 cycles
 SCF Done:  E(UB3LYP) =  -1077.09024875     A.U. after    9 cycles
 SCF Done:  E(UB3LYP) =  -1077.09024937     A.U. after    8 cycles
 SCF Done:  E(UB3LYP) =  -1077.09024992     A.U. after    8 cycles
 SCF Done:  E(UB3LYP) =  -1077.09025008     A.U. after    3 cycles
 SCF Done:  E(UB3LYP) =  -1077.09025008     A.U. after    3 cycles
 SCF Done:  E(UB3LYP) =  -1077.09025008     A.U. after    2 cycles
 SCF Done:  E(UB3LYP) =  -1077.09025008     A.U. after    2 cycles
 SCF Done:  E(UB3LYP) =  -1077.09025008     A.U. after    3 cycles
 SCF Done:  E(UB3LYP) =  -1077.09025008     A.U. after    2 cycles
 Optimization completed.
    -- Stationary point found.
 Normal termination of Gaussian 16 at Tue Mar  6 14:27:58 2018.

 --------------------------------------------------------------
 #N Geom=AllCheck Guess=TCheck SCRF=Check Test B3LYP/CBSB7 Freq
 --------------------------------------------------------------

 Structure from the checkpoint file:  "/rc_scratch/jasm3285/Gau-158697.chk"
 -------------------
 Title Card Required
 -------------------
 Charge =  0 Multiplicity = 2

 SCF Done:  E(UB3LYP) =  -1077.09025008     A.U. after    1 cycles

  Exact polarizability:  61.778  -4.399  70.208   8.800  -2.132  75.167
 Approx polarizability:  86.685  -6.233 107.458   3.222  -7.459 104.049

                      1                      2                      3
                      A                      A                      A
 Frequencies --     48.1455                87.5169               190.3475
 Red. masses --      8.4522                 3.7957                 2.6702
 Frc consts  --      0.0115                 0.0171                 0.0570
 IR Inten    --      1.3359                 1.7826                 5.6360

                      4                      5                      6
                      A                      A                      A
 Frequencies --    242.7506               299.9328               325.0362
 Red. masses --      1.0939                 2.3431                 1.9482
 Frc consts  --      0.0380                 0.1242                 0.1213
 IR Inten    --      0.1482                 0.9275                 9.6025

                      7                      8                      9
                      A                      A                      A
 Frequencies --    359.8105               422.2378               514.3032
 Red. masses --      3.1925                 1.9012                 4.4996
 Frc consts  --      0.2435                 0.1997                 0.7012
 IR Inten    --      6.2966                23.1448                 5.8056

                     10                     11                     12
                      A                      A                      A
 Frequencies --    601.0125               723.9658               873.3505
 Red. masses --      4.0279                 3.9483                 2.4483
 Frc consts  --      0.8572                 1.2193                 1.1002
 IR Inten    --     37.5328                26.8278                 6.7639

                     13                     14                     15
                      A                      A                      A
 Frequencies --    921.0899              1014.5529              1091.3925
 Red. masses --      1.5757                 1.8915                 1.8290
 Frc consts  --      0.7876                 1.1471                 1.2836
 IR Inten    --     11.1355                26.3802                 8.5080

                     16                     17                     18
                      A                      A                      A
 Frequencies --   1097.1840              1117.7642              1205.7724
 Red. masses --      2.2871                 2.1949                 1.1979
 Frc consts  --      1.6222                 1.6157                 1.0261
 IR Inten    --      0.3109                12.3356                 1.6891

                     19                     20                     21
                      A                      A                      A
 Frequencies --   1277.6739              1308.2398              1337.4363
 Red. masses --      1.2453                 1.2605                 1.2454
 Frc consts  --      1.1977                 1.2711                 1.3125
 IR Inten    --     57.6284                 7.2823                14.0077

                     22                     23                     24
                      A                      A                      A
 Frequencies --   1364.1348              1415.1893              1455.3745
 Red. masses --      1.3570                 1.2401                 1.1104
 Frc consts  --      1.4878                 1.4634                 1.3858
 IR Inten    --      2.5163                 5.7620                 5.6123

                     25                     26                     27
                      A                      A                      A
 Frequencies --   1486.6743              1498.0273              3009.4944
 Red. masses --      1.0435                 1.0449                 1.0608
 Frc consts  --      1.3589                 1.3816                 5.6609
 IR Inten    --      8.6378                 4.9447                10.8185

                     28                     29                     30
                      A                      A                      A
 Frequencies --   3030.7256              3061.3938              3090.2427
 Red. masses --      1.0379                 1.0984                 1.0955
 Frc consts  --      5.6172                 6.0654                 6.1635
 IR Inten    --     19.9958                 4.4136                 3.0610

                     31                     32                     33
                      A                      A                      A
 Frequencies --   3104.9466              3121.9775              3226.7780
 Red. masses --      1.0926                 1.1009                 1.0897
 Frc consts  --      6.2059                 6.3222                 6.6848
 IR Inten    --     18.5228                15.8278                 2.1015

 - Thermochemistry -
 -------------------
 Temperature   298.150 Kelvin.  Pressure   1.00000 Atm.
 Atom     1 has atomic number  6 and mass  12.00000

 Molecular mass:   124.99248 amu.
 Principal axes and moments of inertia in atomic units:
                           1         2         3
     Eigenvalues --   477.697811608.714221856.08282
           X            0.62093  -0.20655   0.75617
           Y           -0.19557   0.89333   0.40461
           Z            0.75908   0.39912  -0.51430
 This molecule is an asymmetric top.
 Rotational symmetry number  1.
 Warning -- assumption of classical behavior for rotation
           may cause significant error
 Rotational temperatures (Kelvin)      0.18132     0.05384     0.04666
 Rotational constants (GHZ):           3.77800     1.12185     0.97234
 Zero-point vibrational energy     262726.7 (Joules/Mol)
                                   62.79319 (Kcal/Mol)
 Warning -- explicit consideration of  10 degrees of freedom as
           vibrations may cause significant error
 Vibrational temperatures:     69.27   125.92   273.87   349.26   431.54
          (Kelvin)            467.65   517.69   607.51   739.97   864.72
                             1041.63  1256.56  1325.24  1459.72  1570.27
                             1578.60  1608.21  1734.84  1838.29  1882.27
                             1924.27  1962.69  2036.14  2093.96  2138.99
                             2155.33  4329.99  4360.54  4404.66  4446.17
                             4467.33  4491.83  4642.61

 Zero-point correction=                           0.100067 (Hartree/Particle)
 Thermal correction to Energy=                    0.107795
 Thermal correction to Enthalpy=                  0.108739
 Thermal correction to Gibbs Free Energy=         0.066009
 Sum of electronic and zero-point Energies=          -1076.990183
 Sum of electronic and thermal Energies=             -1076.982455
 Sum of electronic and thermal Enthalpies=           -1076.981511
 Sum of electronic and thermal Free Energies=        -1077.024242

                     E (Thermal)             CV                S
                      KCal/Mol        Cal/Mol-Kelvin    Cal/Mol-Kelvin
 Total                   67.642             26.137             89.934
 Electronic               0.000              0.000              1.377
 Translational            0.889              2.981             40.383
 Rotational               0.889              2.981             28.746
 Vibrational             65.865             20.176             19.427
 Vibration     1          0.595              1.978              4.892
 Vibration     2          0.601              1.958              3.715
 Vibration     3          0.634              1.853              2.224
 Vibration     4          0.659              1.775              1.783
 Vibration     5          0.692              1.674              1.417
 Vibration     6          0.709              1.625              1.285
 Vibration     7          0.734              1.555              1.123
 Vibration     8          0.785              1.422              0.884
 Vibration     9          0.869              1.218              0.623
 Vibration    10          0.959              1.030              0.448

 Optimization completed.
    -- Stationary point found.
 Normal termination of Gaussian 16 at Tue Mar  6 14:29:00 2018.

 ----------------------------------------------------------------
 #N Geom=AllCheck Guess=TCheck SCRF=Check Test CCSD(T)/6-31+G(d')
 ----------------------------------------------------------------

 Structure from the checkpoint file:  "/rc_scratch/jasm3285/Gau-158697.chk"
 -------------------
 Title Card Required
 -------------------
 Charge =  0 Multiplicity = 2

 SCF Done:  E(UHF) =  -1074.47946176     A.U. after   17 cycles
 E2 =    -0.7751924037D+00 EUMP2 =    -0.10752546541640D+04
 CCSD(T)= -0.10753515602D+04
 =-1075.3151644\MP4SDQ=-1075.3239504\CCSD=-1075.3253458\CCSD(T)=-1075.3
 Normal termination of Gaussian 16 at Tue Mar  6 16:20:06 2018.

 ----------------------------------------------------------
 #N Geom=AllCheck Guess=TCheck SCRF=Check Test MP4SDQ/CBSB4
 ----------------------------------------------------------

 Structure from the checkpoint file:  "/rc_scratch/jasm3285/Gau-158697.chk"
 -------------------
 Title Card Required
 -------------------
 Charge =  0 Multiplicity = 2

 SCF Done:  E(UHF) =  -1074.49222103     A.U. after   13 cycles
 E2 =    -0.8784088144D+00 EUMP2 =    -0.10753706298474D+04
 Normal termination of Gaussian 16 at Tue Mar  6 16:31:46 2018.

 ----------------------------------------------------------------------
 #N Geom=AllCheck Guess=TCheck SCRF=Check Test MP2/CBSB3 CBSExtrap=(NMi
 n=10,MinPop)
 ----------------------------------------------------------------------

 Structure from the checkpoint file:  "/rc_scratch/jasm3285/Gau-158697.chk"
 -------------------
 Title Card Required
 -------------------
 Charge =  0 Multiplicity = 2

                          Input orientation:
 ---------------------------------------------------------------------
 Center     Atomic      Atomic             Coordinates (Angstroms)
 Number     Number       Type             X           Y           Z
 ---------------------------------------------------------------------
      1          6           0       -4.164207    0.256304   -0.061893
      2          1           0       -4.313144   -0.806715   -0.177459
      3          6           0       -3.668009    0.893956    1.184326
      4          1           0       -4.040993    1.924409    1.241125
      5          1           0       -4.075744    0.350081    2.042801
      6          6           0       -2.136257    0.967814    1.333821
      7          1           0       -1.696784    1.393234    0.431969
      8          6           0       -1.696685    1.737703    2.568144
      9          1           0       -2.106272    1.289521    3.476343
     10          1           0       -0.609335    1.753193    2.651649
     11          1           0       -2.051740    2.771038    2.500194
     12         17           0       -4.067831    1.127303   -1.552217
     13         17           0       -1.447564   -0.734139    1.402445
 ---------------------------------------------------------------------

 SCF Done:  E(UHF) =  -1074.58857493     A.U. after   14 cycles
 E2 =    -0.1029079649D+01 EUMP2 =    -0.10756176545815D+04
 E2(CBS)=      -1.146787 CBS-Int=       0.041032 OIii=       9.301945

 Alpha  occ. eigenvalues -- -104.84295-104.81941 -11.31188 -11.30324 -11.25797
 Alpha  occ. eigenvalues --  -11.23838 -10.56863 -10.54541  -8.03649  -8.03473
 Alpha  occ. eigenvalues --   -8.03441  -8.01286  -8.01133  -8.01128  -1.17725
 Alpha  occ. eigenvalues --   -1.13833  -1.03473  -0.99176  -0.86623  -0.79843
 Alpha  occ. eigenvalues --   -0.67756  -0.62532  -0.62065  -0.61147  -0.55068
 Alpha  occ. eigenvalues --   -0.54308  -0.53606  -0.51225  -0.49247  -0.45388
 Alpha  occ. eigenvalues --   -0.43679  -0.43598  -0.35673
 Alpha virt. eigenvalues --    0.04014   0.05260   0.06036   0.06269   0.07595
 Alpha virt. eigenvalues --    0.08609   0.08931   0.10128   0.11416   0.12861
 Alpha virt. eigenvalues --    0.13980   0.14390   0.16042   0.16363   0.17150

  Beta  occ. eigenvalues -- -104.84260-104.81946 -11.30923 -11.27659 -11.26121
  Beta  occ. eigenvalues --  -11.23837 -10.56821 -10.54546  -8.03743  -8.03417
  Beta  occ. eigenvalues --   -8.03218  -8.01311  -8.01134  -8.01128  -1.15893
  Beta  occ. eigenvalues --   -1.12946  -1.03131  -0.98240  -0.83140  -0.77618
  Beta  occ. eigenvalues --   -0.67094  -0.62001  -0.60603  -0.59793  -0.54352
  Beta  occ. eigenvalues --   -0.53486  -0.52284  -0.49558  -0.47062  -0.45281
  Beta  occ. eigenvalues --   -0.43557  -0.43452
  Beta virt. eigenvalues --    0.04030   0.05275   0.06040   0.06283   0.07643
  Beta virt. eigenvalues --    0.08235   0.08925   0.09241   0.10733   0.11595
  Beta virt. eigenvalues --    0.12946   0.14218   0.15373   0.16166   0.16720

 Mulliken charges and spin densities:
               1          2
     1  C    0.053673   1.116387
     2  H    0.090602  -0.077324
     3  C   -0.035242  -0.125648
     4  H    0.057888   0.024378
     5  H    0.068380   0.012725
     6  C    0.983374   0.047605
     7  H    0.016648  -0.004620
     8  C   -0.415476   0.003216
     9  H    0.066963   0.000097
    10  H    0.088801   0.000900
    11  H    0.067007  -0.000711
    12  Cl  -0.382829   0.002331
    13  Cl  -0.659790   0.000663
 Sum of Mulliken charges =  -0.00000   1.00000

 Dipole moment (field-independent basis, Debye):
    X=             -0.6477    Y=              1.4790    Z=              1.5821  Tot=              2.2605
 Quadrupole moment (field-independent basis, Debye-Ang):
   XX=            -49.8125   YY=            -49.6296   ZZ=            -51.3985
   XY=             -0.5189   XZ=             -7.1928   YZ=              4.7923

 Normal termination of Gaussian 16 at Tue Mar  6 17:42:22 2018.
