 Gaussian 16, Revision A.03,
 Gaussian 16:  ES64L-G16RevA.03 25-Dec-2016

 ----------------------------------------------------------------------
 # opt=(calcfc,tight,noeigentest) freq cbs-qb3 scf=qc geom=connectivity
  ccsd=maxcyc=1000 optcyc=100
 ----------------------------------------------------------------------

 -------------------
 Title Card Required
 -------------------
 Symbolic Z-matrix:
 Charge =  0 Multiplicity = 2

 SCF Done:  E(UB3LYP) =  -268.967782537     a.u. after   12 cycles
 SCF Done:  E(UB3LYP) =  -268.963540753     a.u. after   30 cycles
 SCF Done:  E(UB3LYP) =  -268.975316260     a.u. after   18 cycles
 SCF Done:  E(UB3LYP) =  -268.976952957     a.u. after   24 cycles
 SCF Done:  E(UB3LYP) =  -268.977395442     a.u. after   14 cycles
 SCF Done:  E(UB3LYP) =  -268.977437889     a.u. after    7 cycles
 SCF Done:  E(UB3LYP) =  -268.977443512     a.u. after    3 cycles
 SCF Done:  E(UB3LYP) =  -268.977444805     a.u. after    3 cycles
 SCF Done:  E(UB3LYP) =  -268.977445154     a.u. after    3 cycles
 SCF Done:  E(UB3LYP) =  -268.977445186     a.u. after    2 cycles
 SCF Done:  E(UB3LYP) =  -268.977445191     a.u. after    2 cycles
 Optimization completed.
    -- Stationary point found.
 Normal termination of Gaussian 16 at Thu Feb  8 14:04:40 2018.

 ---------------------------------------------------------
 #N Geom=AllCheck Guess=TCheck SCRF=Check B3LYP/CBSB7 Freq
 ---------------------------------------------------------

 Structure from the checkpoint file:  "/gpfs/summit/scratch/jasm3285/Gau-56481.chk"
 -------------------
 Title Card Required
 -------------------
 Charge =  0 Multiplicity = 2

 SCF Done:  E(UB3LYP) =  -268.977445191     a.u. after    1 cycles

  Exact polarizability:  44.554  -0.414  42.676   0.949  -0.319  40.944
 Approx polarizability:  56.912   1.479  55.390  -1.446   0.073  59.461

                      1                      2                      3
                      A                      A                      A
 Frequencies --    118.3452               248.0569               257.7802
 Red. masses --      3.2819                 1.5184                 1.2205
 Frc consts  --      0.0271                 0.0550                 0.0478
 IR Inten    --      3.4744                 7.5904                45.6308

                      4                      5                      6
                      A                      A                      A
 Frequencies --    282.6209               343.7629               421.4870
 Red. masses --      1.5863                 1.8290                 2.8070
 Frc consts  --      0.0747                 0.1273                 0.2938
 IR Inten    --     50.0481                21.2253                14.0903

                      7                      8                      9
                      A                      A                      A
 Frequencies --    527.2576               669.2926               804.2065
 Red. masses --      2.1247                 2.8836                 3.1187
 Frc consts  --      0.3480                 0.7610                 1.1884
 IR Inten    --     19.0377                15.3872                 8.1426

                     10                     11                     12
                      A                      A                      A
 Frequencies --    933.0916              1002.5249              1022.1192
 Red. masses --      1.9495                 2.2691                 1.6630
 Frc consts  --      1.0001                 1.3437                 1.0236
 IR Inten    --     10.4614                37.4395                36.6127

                     13                     14                     15
                      A                      A                      A
 Frequencies --   1081.0731              1133.6206              1204.9567
 Red. masses --      2.3189                 2.1437                 1.3924
 Frc consts  --      1.5968                 1.6231                 1.1912
 IR Inten    --      5.7592                25.5117                 4.1739

                     16                     17                     18
                      A                      A                      A
 Frequencies --   1248.5200              1348.2990              1363.3066
 Red. masses --      1.1491                 1.0952                 1.3025
 Frc consts  --      1.0554                 1.1731                 1.4263
 IR Inten    --     66.0027                21.3212                23.9873

                     19                     20                     21
                      A                      A                      A
 Frequencies --   1379.1705              1414.2279              1421.0141
 Red. masses --      1.2957                 1.3227                 1.5320
 Frc consts  --      1.4521                 1.5587                 1.8226
 IR Inten    --      8.3004                 2.4087                21.1276

                     22                     23                     24
                      A                      A                      A
 Frequencies --   1490.7851              1501.1506              2896.0394
 Red. masses --      1.0431                 1.0881                 1.0643
 Frc consts  --      1.3659                 1.4446                 5.2592
 IR Inten    --      6.0220                 7.8579                15.8604

                     25                     26                     27
                      A                      A                      A
 Frequencies --   2932.8196              2953.3148              3025.1886
 Red. masses --      1.0822                 1.0830                 1.0370
 Frc consts  --      5.4842                 5.5652                 5.5917
 IR Inten    --     11.4384                70.3862                20.8047

                     28                     29                     30
                      A                      A                      A
 Frequencies --   3081.9199              3118.1281              3832.3933
 Red. masses --      1.1011                 1.1005                 1.0663
 Frc consts  --      6.1619                 6.3042                 9.2276
 IR Inten    --     33.9926                13.7854                21.9454

 - Thermochemistry -
 -------------------
 Temperature   298.150 Kelvin.  Pressure   1.00000 Atm.
 Atom     1 has atomic number  6 and mass  12.00000

 Molecular mass:    75.04460 amu.
 Principal axes and moments of inertia in atomic units:
                           1         2         3
     Eigenvalues --   260.88217 428.60150 546.28828
           X            0.99654  -0.07315   0.03944
           Y            0.07416   0.99693  -0.02503
           Z           -0.03749   0.02787   0.99891
 This molecule is an asymmetric top.
 Rotational symmetry number  1.
 Rotational temperatures (Kelvin)      0.33200     0.20208     0.15855
 Rotational constants (GHZ):           6.91784     4.21077     3.30364
 Zero-point vibrational energy     257534.9 (Joules/Mol)
                                   61.55232 (Kcal/Mol)
 Warning -- explicit consideration of   7 degrees of freedom as
           vibrations may cause significant error
 Vibrational temperatures:    170.27   356.90   370.89   406.63   494.60
          (Kelvin)            606.43   758.61   962.96  1157.07  1342.51
                             1442.41  1470.60  1555.42  1631.03  1733.66
                             1796.34  1939.90  1961.49  1984.32  2034.76
                             2044.52  2144.91  2159.82  4166.75  4219.67
                             4249.16  4352.57  4434.20  4486.29  5513.96

 Zero-point correction=                           0.098090 (Hartree/Particle)
 Thermal correction to Energy=                    0.104341
 Thermal correction to Enthalpy=                  0.105285
 Thermal correction to Gibbs Free Energy=         0.068338
 Sum of electronic and zero-point Energies=           -268.879355
 Sum of electronic and thermal Energies=              -268.873104
 Sum of electronic and thermal Enthalpies=            -268.872160
 Sum of electronic and thermal Free Energies=         -268.909107

                     E (Thermal)             CV                S
                      KCal/Mol        Cal/Mol-Kelvin    Cal/Mol-Kelvin
 Total                   65.475             21.674             77.762
 Electronic               0.000              0.000              1.377
 Translational            0.889              2.981             38.862
 Rotational               0.889              2.981             25.616
 Vibrational             63.698             15.712             11.906
 Vibration     1          0.609              1.934              3.127
 Vibration     2          0.662              1.766              1.744
 Vibration     3          0.667              1.750              1.677
 Vibration     4          0.682              1.706              1.518
 Vibration     5          0.723              1.588              1.195
 Vibration     6          0.784              1.424              0.887
 Vibration     7          0.882              1.190              0.593

 Optimization completed.
    -- Stationary point found.
 Normal termination of Gaussian 16 at Thu Feb  8 14:11:08 2018.

 -----------------------------------------------------------
 #N Geom=AllCheck Guess=TCheck SCRF=Check CCSD(T)/6-31+G(d')
 -----------------------------------------------------------

 Structure from the checkpoint file:  "/gpfs/summit/scratch/jasm3285/Gau-56481.chk"
 -------------------
 Title Card Required
 -------------------
 Charge =  0 Multiplicity = 2

 SCF Done:  E(UHF) =  -267.349147638     a.u. after   14 cycles
 E2 =    -0.7324180513D+00 EUMP2 =    -0.26808156568957D+03
 CCSD(T)= -0.26815679836D+03
 .1353595\CCSD(T)=-268.1567984\S2=0.758748\S2-1=0.752052\S2A=0.75006\RM
 Normal termination of Gaussian 16 at Thu Feb  8 14:23:51 2018.

 -----------------------------------------------------
 #N Geom=AllCheck Guess=TCheck SCRF=Check MP4SDQ/CBSB4
 -----------------------------------------------------

 Structure from the checkpoint file:  "/gpfs/summit/scratch/jasm3285/Gau-56481.chk"
 -------------------
 Title Card Required
 -------------------
 Charge =  0 Multiplicity = 2

 SCF Done:  E(UHF) =  -267.365821565     a.u. after    7 cycles
 E2 =    -0.7785134946D+00 EUMP2 =    -0.26814433505929D+03
 Normal termination of Gaussian 16 at Thu Feb  8 14:24:30 2018.

 ----------------------------------------------------------------------
 #N Geom=AllCheck Guess=TCheck SCRF=Check MP2/CBSB3 CBSExtrap=(NMin=10,
 MinPop)
 ----------------------------------------------------------------------

 Structure from the checkpoint file:  "/gpfs/summit/scratch/jasm3285/Gau-56481.chk"
 -------------------
 Title Card Required
 -------------------
 Charge =  0 Multiplicity = 2

                         Standard orientation:
 ---------------------------------------------------------------------
 Center     Atomic      Atomic             Coordinates (Angstroms)
 Number     Number       Type             X           Y           Z
 ---------------------------------------------------------------------
      1          6           0       -1.001624    1.218490   -0.106671
      2          1           0       -0.583233    1.370871   -1.102686
      3          1           0       -0.707391    2.058155    0.530419
      4          1           0       -2.093731    1.223564   -0.177138
      5          6           0       -0.504847   -0.107328    0.460131
      6          1           0       -0.883316   -0.239554    1.486633
      7          6           0        1.024324   -0.180238    0.522568
      8          1           0        1.409725    0.452147    1.347685
      9          1           0        1.337584   -1.204739    0.794722
     10          8           0       -0.905173   -1.213839   -0.350610
     11          1           0       -1.856219   -1.159472   -0.484280
     12          8           0        1.688856    0.203024   -0.605831
 ---------------------------------------------------------------------

 SCF Done:  E(UHF) =  -267.444824492     a.u. after   37 cycles
 E2 =    -0.9356280527D+00 EUMP2 =    -0.26838045254423D+03
 E2(CBS)=      -1.031674 CBS-Int=       0.030665 OIii=       8.280058

 The electronic state is 2-A.
 Alpha  occ. eigenvalues --  -20.61866 -20.56248 -11.28894 -11.28150 -11.22247
 Alpha  occ. eigenvalues --   -1.41241  -1.36474  -1.03903  -0.93504  -0.80638
 Alpha  occ. eigenvalues --   -0.72390  -0.69152  -0.65272  -0.63734  -0.60227
 Alpha  occ. eigenvalues --   -0.56138  -0.54399  -0.51616  -0.50649  -0.45654
 Alpha  occ. eigenvalues --   -0.45100
 Alpha virt. eigenvalues --    0.03689   0.05377   0.05754   0.06563   0.08021
 Alpha virt. eigenvalues --    0.08614   0.09599   0.12209   0.13884   0.15061
 Alpha virt. eigenvalues --    0.16469   0.17305   0.17702   0.17850   0.18958

  Beta  occ. eigenvalues --  -20.57839 -20.56241 -11.28895 -11.28444 -11.22252
  Beta  occ. eigenvalues --   -1.36870  -1.27927  -1.03124  -0.92055  -0.79289
  Beta  occ. eigenvalues --   -0.70624  -0.65504  -0.62693  -0.58302  -0.56807
  Beta  occ. eigenvalues --   -0.54736  -0.53933  -0.51039  -0.45096  -0.43299
  Beta virt. eigenvalues --    0.03694   0.05373   0.05758   0.06558   0.07912
  Beta virt. eigenvalues --    0.08616   0.09184   0.09758   0.12358   0.14620
  Beta virt. eigenvalues --    0.15240   0.16502   0.17465   0.17759   0.18326

 Mulliken charges and spin densities:
               1          2
     1  C   -0.232016   0.004806
     2  H    0.114992  -0.000891
     3  H    0.056177  -0.000296
     4  H    0.043542  -0.000275
     5  C    0.112214  -0.001272
     6  H    0.041563  -0.002588
     7  C   -0.079272  -0.109147
     8  H    0.082678   0.075331
     9  H    0.102118   0.051867
    10  O   -0.354650   0.000941
    11  H    0.263291   0.000356
    12  O   -0.150639   0.981170
 Sum of Mulliken charges =   0.00000   1.00000

 Dipole moment (field-independent basis, Debye):
    X=             -1.9377    Y=              0.8932    Z=              2.0951  Tot=              2.9904
 Quadrupole moment (field-independent basis, Debye-Ang):
   XX=            -29.4971   YY=            -32.7014   ZZ=            -31.2937
   XY=             -0.2279   XZ=              2.9871   YZ=             -0.0898

 Normal termination of Gaussian 16 at Thu Feb  8 14:32:30 2018.
