 Gaussian 16, Revision A.03,
 Gaussian 16:  ES64L-G16RevA.03 25-Dec-2016

 ----------------------------------
 # freq hf/sto-3g geom=connectivity
 ----------------------------------

 -------------------
 Title Card Required
 -------------------
 Symbolic Z-matrix:
 Charge =  0 Multiplicity = 1

                         Standard orientation:
 ---------------------------------------------------------------------
 Center     Atomic      Atomic             Coordinates (Angstroms)
 Number     Number       Type             X           Y           Z
 ---------------------------------------------------------------------
      1          6           0        0.000000    1.401400   -0.000000
      2          6           0        1.213648    0.700700   -0.000000
      3          6           0        1.213648   -0.700700   -0.000000
      4          6           0       -0.000000   -1.401400    0.000000
      5          6           0       -1.213648   -0.700700    0.000000
      6          6           0       -1.213648    0.700700    0.000000
      7          1           0        0.000000    2.471400   -0.000000
      8          1           0        2.140295    1.235700   -0.000000
      9          1           0        2.140295   -1.235700   -0.000000
     10          1           0       -0.000000   -2.471400    0.000000
     11          1           0       -2.140295   -1.235700    0.000000
     12          1           0       -2.140295    1.235700    0.000000
 ---------------------------------------------------------------------

 SCF Done:  E(RHF) =  -227.888954561     A.U. after    7 cycles

 The electronic state is 1-A1G.
 Alpha  occ. eigenvalues --  -11.02891 -11.02891 -11.02888 -11.02859 -11.02859
 Alpha  occ. eigenvalues --  -11.02846  -1.08613  -0.95419  -0.95419  -0.76929
 Alpha  occ. eigenvalues --   -0.76929  -0.66430  -0.60254  -0.55080  -0.53631
 Alpha  occ. eigenvalues --   -0.53631  -0.45267  -0.43529  -0.43529  -0.27811
 Alpha  occ. eigenvalues --   -0.27811
 Alpha virt. eigenvalues --    0.26629   0.26629   0.49828   0.59502   0.66085
 Alpha virt. eigenvalues --    0.66085   0.72874   0.73483   0.73483   0.89180
 Alpha virt. eigenvalues --    0.89180   0.89249   0.89249   1.07495   1.14667

 Mulliken charges:
               1
     1  C   -0.064216
     2  C   -0.064216
     3  C   -0.064216
     4  C   -0.064216
     5  C   -0.064216
     6  C   -0.064216
     7  H    0.064216
     8  H    0.064216
     9  H    0.064216
    10  H    0.064216
    11  H    0.064216
    12  H    0.064216
 Sum of Mulliken charges =  -0.00000

 Dipole moment (field-independent basis, Debye):
    X=              0.0000    Y=             -0.0000    Z=             -0.0000  Tot=              0.0000
 Quadrupole moment (field-independent basis, Debye-Ang):
   XX=            -31.2119   YY=            -31.2119   ZZ=            -35.0959
   XY=              0.0000   XZ=             -0.0000   YZ=             -0.0000

  Exact polarizability:  45.527  -0.000  45.527  -0.000  -0.000   5.912
 Approx polarizability:  46.317  -0.000  46.317  -0.000  -0.000   4.947

                      1                      2                      3
                     E2U                    E2U                    E2G
 Frequencies --    487.5462               487.5462               690.7651
 Red. masses --      2.6694                 2.6694                 5.8976
 Frc consts  --      0.3739                 0.3739                 1.6580
 IR Inten    --      0.0000                 0.0000                 0.0000
 Raman Activ --      0.0000                 0.0000                 2.0831

                      4                      5                      6
                     E2G                    A2U                    B2G
 Frequencies --    690.7651               700.7501               845.8670
 Red. masses --      5.8976                 1.0848                 3.1311
 Frc consts  --      1.6580                 0.3139                 1.3199
 IR Inten    --      0.0000                25.0125                 0.0000
 Raman Activ --      2.0831                 0.0000                 0.0000

                      7                      8                      9
                     E1G                    E1G                    B2U
 Frequencies --    957.4837               957.4837              1035.5207
 Red. masses --      1.2438                 1.2438                 9.2168
 Frc consts  --      0.6718                 0.6718                 5.8230
 IR Inten    --      0.0000                 0.0000                 0.0000
 Raman Activ --      5.4411                 5.4411                 0.0000

                     10                     11                     12
                     E2U                    E2U                    A1G
 Frequencies --   1124.5652              1124.5652              1132.2458
 Red. masses --      1.4266                 1.4266                 5.8884
 Frc consts  --      1.0630                 1.0630                 4.4476
 IR Inten    --      0.0000                 0.0000                 0.0000
 Raman Activ --      0.0000                 0.0000                37.1938

                     13                     14                     15
                     B2G                    B1U                    E1U
 Frequencies --   1146.2577              1154.6113              1182.4577
 Red. masses --      1.3224                 6.3942                 1.6109
 Frc consts  --      1.0237                 5.0223                 1.3271
 IR Inten    --      0.0000                 0.0000                 0.1946
 Raman Activ --      0.0000                 0.0000                 0.0000

                     16                     17                     18
                     E1U                    B2U                    E2G
 Frequencies --   1182.4577              1314.9691              1325.2061
 Red. masses --      1.6109                 1.0341                 1.1316
 Frc consts  --      1.3271                 1.0535                 1.1709
 IR Inten    --      0.1946                 0.0000                 0.0000
 Raman Activ --      0.0000                 0.0000                12.1638

                     19                     20                     21
                     E2G                    A2G                    E1U
 Frequencies --   1325.2061              1550.7230              1727.1194
 Red. masses --      1.1316                 1.2438                 2.1396
 Frc consts  --      1.1709                 1.7622                 3.7604
 IR Inten    --      0.0000                 0.0000                14.8890
 Raman Activ --     12.1638                 0.0000                 0.0000

                     22                     23                     24
                     E1U                    E2G                    E2G
 Frequencies --   1727.1194              1869.1107              1869.1107
 Red. masses --      2.1396                 5.4676                 5.4676
 Frc consts  --      3.7604                11.2543                11.2543
 IR Inten    --     14.8890                 0.0000                 0.0000
 Raman Activ --      0.0000                21.6944                21.6944

                     25                     26                     27
                     B1U                    E2G                    E2G
 Frequencies --   3822.3408              3840.8763              3840.8763
 Red. masses --      1.0879                 1.0929                 1.0929
 Frc consts  --      9.3650                 9.4992                 9.4992
 IR Inten    --      0.0000                 0.0000                 0.0000
 Raman Activ --      0.0000                73.6801                73.6801

                     28                     29                     30
                     E1U                    E1U                    A1G
 Frequencies --   3853.8061              3853.8061              3864.3978
 Red. masses --      1.0998                 1.0998                 1.1041
 Frc consts  --      9.6237                 9.6237                 9.7142
 IR Inten    --     13.7423                13.7423                 0.0000
 Raman Activ --      0.0000                 0.0000               185.3673

 - Thermochemistry -
 -------------------
 Temperature   298.150 Kelvin.  Pressure   1.00000 Atm.
 Atom     1 has atomic number  6 and mass  12.00000

 Molecular mass:    78.04695 amu.
 Principal axes and moments of inertia in atomic units:
                           1         2         3
     Eigenvalues --   318.42480 318.42480 636.84960
           X            0.97263   0.23235   0.00000
           Y           -0.23235   0.97263   0.00000
           Z            0.00000  -0.00000   1.00000
 This molecule is an oblate symmetric top.
 Rotational symmetry number 12.
 Rotational temperatures (Kelvin)      0.27201     0.27201     0.13600
 Rotational constants (GHZ):           5.66772     5.66772     2.83386
 Zero-point vibrational energy     303167.0 (Joules/Mol)
                                   72.45864 (Kcal/Mol)
 Warning -- explicit consideration of   2 degrees of freedom as
           vibrations may cause significant error
 Vibrational temperatures:    701.47   701.47   993.86   993.86  1008.22
          (Kelvin)           1217.01  1377.61  1377.61  1489.88  1618.00
                             1618.00  1629.05  1649.21  1661.23  1701.29
                             1701.29  1891.95  1906.68  1906.68  2231.14
                             2484.94  2484.94  2689.23  2689.23  5499.50
                             5526.16  5526.16  5544.77  5544.77  5560.01

 Zero-point correction=                           0.115470 (Hartree/Particle)
 Thermal correction to Energy=                    0.119485
 Thermal correction to Enthalpy=                  0.120429
 Thermal correction to Gibbs Free Energy=         0.090513
 Sum of electronic and zero-point Energies=           -227.773484
 Sum of electronic and thermal Energies=              -227.769470
 Sum of electronic and thermal Enthalpies=            -227.768526
 Sum of electronic and thermal Free Energies=         -227.798442

                     E (Thermal)             CV                S
                      KCal/Mol        Cal/Mol-Kelvin    Cal/Mol-Kelvin
 Total                   74.978             15.075             62.964
 Electronic               0.000              0.000              0.000
 Translational            0.889              2.981             38.979
 Rotational               0.889              2.981             20.733
 Vibrational             73.200              9.114              3.251
 Vibration     1          0.843              1.278              0.690
 Vibration     2          0.843              1.278              0.690

 Normal termination of Gaussian 16 at Thu Jan  9 12:28:34 2020.
