 Gaussian 16, Revision A.03,
 Gaussian 16:  ES64L-G16RevA.03 25-Dec-2016

 -----------------------------------------
 #p freq opt ccsd/sto-3g geom=connectivity
 -----------------------------------------

 -------------------
 Title Card Required
 -------------------
 Symbolic Z-matrix:
 Charge =  0 Multiplicity = 1

 SCF Done:  E(RHF) =  -39.7262784183     A.U. after    6 cycles
 E2 =    -0.5405176897D-01 EUMP2 =    -0.39780330187275D+02
 SCF Done:  E(RHF) =  -39.7237840038     A.U. after    5 cycles
 E2 =    -0.5864747452D-01 EUMP2 =    -0.39782431478321D+02
 SCF Done:  E(RHF) =  -39.7248406457     A.U. after    5 cycles
 E2 =    -0.5800239903D-01 EUMP2 =    -0.39782843044754D+02
 Optimization completed.
    -- Stationary point found.
 Normal termination of Gaussian 16 at Thu Jan  9 20:09:40 2020.

 ---------------------------------------------------------------------
 #P Geom=AllCheck Guess=TCheck SCRF=Check GenChk RCCSD(FC)/STO-3G Freq
 ---------------------------------------------------------------------

 Structure from the checkpoint file:  "/rc_scratch/jasm3285/Gau-187016.chk"
 -------------------
 Title Card Required
 -------------------
 Charge =  0 Multiplicity = 1

                         Standard orientation:
 ---------------------------------------------------------------------
 Center     Atomic      Atomic             Coordinates (Angstroms)
 Number     Number       Type             X           Y           Z
 ---------------------------------------------------------------------
      1          6           0        0.000000    0.000000    0.000000
      2          1           0        0.639667    0.639667    0.639667
      3          1           0       -0.639667   -0.639667    0.639667
      4          1           0       -0.639667    0.639667   -0.639667
      5          1           0        0.639667   -0.639667   -0.639667
 ---------------------------------------------------------------------

 SCF Done:  E(RHF) =  -39.7248406457     A.U. after    1 cycles
 E2 =    -0.5800239903D-01 EUMP2 =    -0.39782843044754D+02
 SCF Done:  E(RHF) =  -39.7248392490     A.U. after    5 cycles
 E2 =    -0.5800249362D-01 EUMP2 =    -0.39782841742653D+02
 SCF Done:  E(RHF) =  -39.7248392490     A.U. after    5 cycles
 E2 =    -0.5800249362D-01 EUMP2 =    -0.39782841742653D+02
 SCF Done:  E(RHF) =  -39.7248392490     A.U. after    5 cycles
 E2 =    -0.5800249362D-01 EUMP2 =    -0.39782841742653D+02
 SCF Done:  E(RHF) =  -39.7248173233     A.U. after    5 cycles
 E2 =    -0.5801793528D-01 EUMP2 =    -0.39782835258624D+02
 SCF Done:  E(RHF) =  -39.7248632740     A.U. after    5 cycles
 E2 =    -0.5798690278D-01 EUMP2 =    -0.39782850176831D+02
 SCF Done:  E(RHF) =  -39.7248173233     A.U. after    5 cycles
 E2 =    -0.5801793528D-01 EUMP2 =    -0.39782835258624D+02
 SCF Done:  E(RHF) =  -39.7248632740     A.U. after    5 cycles
 E2 =    -0.5798690278D-01 EUMP2 =    -0.39782850176831D+02
 SCF Done:  E(RHF) =  -39.7248173233     A.U. after    5 cycles
 E2 =    -0.5801793528D-01 EUMP2 =    -0.39782835258624D+02
 SCF Done:  E(RHF) =  -39.7248632740     A.U. after    5 cycles
 E2 =    -0.5798690278D-01 EUMP2 =    -0.39782850176831D+02

 Alpha  occ. eigenvalues --  -11.03197  -0.89945  -0.51097  -0.51078  -0.51075
 Alpha virt. eigenvalues --    0.69728   0.69734   0.69781   0.72419

 Mulliken charges:
               1
     1  C   -0.229636
     2  H    0.057476
     3  H    0.057401
     4  H    0.057380
     5  H    0.057380
 Sum of Mulliken charges =   0.00000

 Dipole moment (field-independent basis, Debye):
    X=              0.0001    Y=              0.0001    Z=             -0.0001  Tot=              0.0002
 Quadrupole moment (field-independent basis, Debye-Ang):
   XX=             -7.8658   YY=             -7.8658   ZZ=             -7.8669
   XY=              0.0003   XZ=             -0.0004   YZ=             -0.0004

                      1                      2                      3
                     T2                     T2                     T2
 Frequencies --   1538.1845              1538.1845              1538.1845
 Red. masses --      1.1740                 1.1740                 1.1740
 Frc consts  --      1.6366                 1.6366                 1.6366
 IR Inten    --      4.5953                 4.5953                 4.5953

                      4                      5                      6
                      E                      E                     A1
 Frequencies --   1756.3601              1756.3601              3247.1047
 Red. masses --      1.0078                 1.0078                 1.0078
 Frc consts  --      1.8317                 1.8317                 6.2608
 IR Inten    --      0.0000                 0.0000                 0.0000

                      7                      8                      9
                     T2                     T2                     T2
 Frequencies --   3479.4790              3479.4790              3479.4790
 Red. masses --      1.1060                 1.1060                 1.1060
 Frc consts  --      7.8892                 7.8892                 7.8892
 IR Inten    --      2.0049                 2.0049                 2.0049

 - Thermochemistry -
 -------------------
 Temperature   298.150 Kelvin.  Pressure   1.00000 Atm.
 Atom     1 has atomic number  6 and mass  12.00000

 Molecular mass:    16.03130 amu.
 Principal axes and moments of inertia in atomic units:
                           1         2         3
     Eigenvalues --    11.78096  11.78096  11.78096
           X            0.81189   0.19251  -0.55116
           Y            0.28898   0.68778   0.66592
           Z           -0.50727   0.69992  -0.50277
 This molecule is a spherical top.
 Rotational symmetry number 12.
 Rotational temperatures (Kelvin)      7.35203     7.35203     7.35203
 Rotational constants (GHZ):         153.19139   153.19139   153.19139
 Zero-point vibrational energy     130469.6 (Joules/Mol)
                                   31.18299 (Kcal/Mol)
 Vibrational temperatures:   2213.10  2213.10  2213.10  2527.01  2527.01
          (Kelvin)           4671.86  5006.19  5006.19  5006.19

 Zero-point correction=                           0.049693 (Hartree/Particle)
 Thermal correction to Energy=                    0.052542
 Thermal correction to Enthalpy=                  0.053486
 Thermal correction to Gibbs Free Energy=         0.032335
 Sum of electronic and zero-point Energies=            -39.756650
 Sum of electronic and thermal Energies=               -39.753801
 Sum of electronic and thermal Enthalpies=             -39.752857
 Sum of electronic and thermal Free Energies=          -39.774008

                     E (Thermal)             CV                S
                      KCal/Mol        Cal/Mol-Kelvin    Cal/Mol-Kelvin
 Total                   32.970              6.218             44.516
 Electronic               0.000              0.000              0.000
 Translational            0.889              2.981             34.261
 Rotational               0.889              2.981             10.217
 Vibrational             31.193              0.256              0.038

 Optimization completed.
    -- Stationary point found.
 Normal termination of Gaussian 16 at Thu Jan  9 20:10:01 2020.
