 Gaussian 16, Revision A.03,
 Gaussian 16:  ES64L-G16RevA.03 25-Dec-2016

 ----------------------------------------
 # freq hf/3-21g nosymm geom=connectivity
 ----------------------------------------

 -------------------
 Title Card Required
 -------------------
 Symbolic Z-matrix:
 Charge =  0 Multiplicity = 1

                          Input orientation:
 ---------------------------------------------------------------------
 Center     Atomic      Atomic             Coordinates (Angstroms)
 Number     Number       Type             X           Y           Z
 ---------------------------------------------------------------------
      1         15           0        0.677322    0.899823    0.000006
      2          8           0        2.182122    0.899670   -0.000028
      3          1           0        0.227452    2.172661   -0.000163
      4          1           0        0.227232    0.263318   -1.102165
      5          1           0        0.227282    0.263628    1.102376
 ---------------------------------------------------------------------

 SCF Done:  E(RHF) =  -415.060515392     A.U. after   11 cycles

 Alpha  occ. eigenvalues --  -79.48075 -20.35154  -7.55842  -5.44477  -5.44339
 Alpha  occ. eigenvalues --   -5.44339  -1.27242  -0.89838  -0.64116  -0.64116
 Alpha  occ. eigenvalues --   -0.49184  -0.38622  -0.38622
 Alpha virt. eigenvalues --    0.16015   0.24097   0.24097   0.27590   0.53388
 Alpha virt. eigenvalues --    0.53388   0.58498   0.76147   1.17649   1.25751
 Alpha virt. eigenvalues --    1.25751   1.94863   1.94863   2.02136   3.16592

 Mulliken charges:
               1
     1  P    1.159985
     2  O   -0.832505
     3  H   -0.109160
     4  H   -0.109160
     5  H   -0.109160
 Sum of Mulliken charges =   0.00000

 Dipole moment (field-independent basis, Debye):
    X=             -5.1787    Y=              0.0005    Z=              0.0001  Tot=              5.1787
 Quadrupole moment (field-independent basis, Debye-Ang):
   XX=            -34.9056   YY=            -19.3594   ZZ=            -19.3603
   XY=             -4.6587   XZ=              0.0002   YZ=              0.0001

  Exact polarizability:  20.209  -0.000  18.226  -0.000   0.000  18.226
 Approx polarizability:  21.076  -0.001  14.754  -0.000   0.000  14.754

                      1                      2                      3
                      A                      A                      A
 Frequencies --    796.3079               796.3079              1072.4609
 Red. masses --      1.2137                 1.2137                 1.0249
 Frc consts  --      0.4534                 0.4534                 0.6946
 IR Inten    --     41.5892                41.5892                84.9066
 Raman Activ --     20.8146                20.8146                38.2588

                      4                      5                      6
                      A                      A                      A
 Frequencies --   1072.4609              1271.8418              1319.1050
 Red. masses --      1.0249                 1.0888                12.4867
 Frc consts  --      0.6946                 1.0377                12.8014
 IR Inten    --     84.9066               129.1956                94.6703
 Raman Activ --     38.2588                18.8832                 8.3025

                      7                      8                      9
                      A                      A                      A
 Frequencies --   2833.9650              2833.9650              2843.8282
 Red. masses --      1.0438                 1.0438                 1.0197
 Frc consts  --      4.9390                 4.9390                 4.8586
 IR Inten    --    144.1407               144.1407               111.4258
 Raman Activ --    104.9508               104.9508               249.3706

 - Thermochemistry -
 -------------------
 Temperature   298.150 Kelvin.  Pressure   1.00000 Atm.
 Atom     1 has atomic number 15 and mass  30.97376

 Molecular mass:    49.99215 amu.
 Principal axes and moments of inertia in atomic units:
                           1         2         3
     Eigenvalues --    17.49118 103.43699 103.43699
           X            1.00000   0.00003   0.00010
           Y           -0.00010   0.08839   0.99609
           Z           -0.00002   0.99609  -0.08839
 This molecule is a prolate symmetric top.
 Rotational symmetry number  3.
 Rotational temperatures (Kelvin)      4.95186     0.83736     0.83736
 Rotational constants (GHZ):         103.18006    17.44774    17.44774
 Zero-point vibrational energy      88764.4 (Joules/Mol)
                                   21.21519 (Kcal/Mol)
 Vibrational temperatures:   1145.71  1145.71  1543.03  1543.03  1829.90
          (Kelvin)           1897.90  4077.44  4077.44  4091.63

 Zero-point correction=                           0.033809 (Hartree/Particle)
 Thermal correction to Energy=                    0.036879
 Thermal correction to Enthalpy=                  0.037823
 Thermal correction to Gibbs Free Energy=         0.011239
 Sum of electronic and zero-point Energies=           -415.026707
 Sum of electronic and thermal Energies=              -415.023637
 Sum of electronic and thermal Enthalpies=            -415.022693
 Sum of electronic and thermal Free Energies=         -415.049276

                     E (Thermal)             CV                S
                      KCal/Mol        Cal/Mol-Kelvin    Cal/Mol-Kelvin
 Total                   23.142              8.187             55.949
 Electronic               0.000              0.000              0.000
 Translational            0.889              2.981             37.651
 Rotational               0.889              2.981             17.682
 Vibrational             21.364              2.225              0.616

 Normal termination of Gaussian 16 at Thu Jan  9 14:49:08 2020.
