 Gaussian 16, Revision A.03,
 Gaussian 16:  ES64L-G16RevA.03 25-Dec-2016

 ----------------------------------------------------------------------
 # opt=(calcfc,tight,modredundant,noeigentest) freq cbs-qb3 scf=qc geom
 =connectivity ccsd=maxcyc=1000 optcyc=100
 ----------------------------------------------------------------------

 -------------------
 Title Card Required
 -------------------
 Symbolic Z-matrix:
 Charge =  0 Multiplicity = 2

 SCF Done:  E(UB3LYP) =  -268.977445191     a.u. after    8 cycles
 SCF Done:  E(UB3LYP) =  -268.977445191     a.u. after    2 cycles
 Optimization completed.
    -- Stationary point found.
 SCF Done:  E(UB3LYP) =  -268.974207497     a.u. after   15 cycles
 SCF Done:  E(UB3LYP) =  -268.976580337     a.u. after   13 cycles
 SCF Done:  E(UB3LYP) =  -268.976697638     a.u. after    9 cycles
 SCF Done:  E(UB3LYP) =  -268.976698207     a.u. after    3 cycles
 SCF Done:  E(UB3LYP) =  -268.976698202     a.u. after    2 cycles
 Optimization completed.
 SCF Done:  E(UB3LYP) =  -268.972005696     a.u. after   35 cycles
 SCF Done:  E(UB3LYP) =  -268.974598910     a.u. after   15 cycles
 SCF Done:  E(UB3LYP) =  -268.974816469     a.u. after   13 cycles
 SCF Done:  E(UB3LYP) =  -268.977444876     a.u. after    9 cycles
 SCF Done:  E(UB3LYP) =  -268.977445182     a.u. after    2 cycles
 SCF Done:  E(UB3LYP) =  -268.977445191     a.u. after    2 cycles
 SCF Done:  E(UB3LYP) =  -268.977445191     a.u. after    2 cycles
 SCF Done:  E(UB3LYP) =  -268.977445191     a.u. after    2 cycles
 SCF Done:  E(UB3LYP) =  -268.977445191     a.u. after    2 cycles
    -- Stationary point found.
 Normal termination of Gaussian 16 at Mon Feb 12 21:56:36 2018.

 ---------------------------------------------------------
 #N Geom=AllCheck Guess=TCheck SCRF=Check B3LYP/CBSB7 Freq
 ---------------------------------------------------------

 Structure from the checkpoint file:  "/rc_scratch/jasm3285/Gau-68798.chk"
 -------------------
 Title Card Required
 -------------------
 Charge =  0 Multiplicity = 2

 SCF Done:  E(UB3LYP) =  -268.977445191     a.u. after    1 cycles

  Exact polarizability:  44.554  -0.414  42.676   0.949  -0.319  40.944
 Approx polarizability:  56.912   1.479  55.389  -1.446   0.073  59.462

                      1                      2                      3
                      A                      A                      A
 Frequencies --    118.3361               248.0529               257.7675
 Red. masses --      3.2817                 1.5183                 1.2203
 Frc consts  --      0.0271                 0.0550                 0.0478
 IR Inten    --      3.4749                 7.6003                45.6530

                      4                      5                      6
                      A                      A                      A
 Frequencies --    282.6124               343.7516               421.4887
 Red. masses --      1.5868                 1.8290                 2.8069
 Frc consts  --      0.0747                 0.1273                 0.2938
 IR Inten    --     50.0206                21.2208                14.0905

                      7                      8                      9
                      A                      A                      A
 Frequencies --    527.2500               669.2916               804.2078
 Red. masses --      2.1247                 2.8836                 3.1187
 Frc consts  --      0.3480                 0.7611                 1.1884
 IR Inten    --     19.0359                15.3862                 8.1429

                     10                     11                     12
                      A                      A                      A
 Frequencies --    933.0942              1002.5268              1022.1192
 Red. masses --      1.9495                 2.2690                 1.6630
 Frc consts  --      1.0000                 1.3436                 1.0236
 IR Inten    --     10.4605                37.4416                36.6097

                     13                     14                     15
                      A                      A                      A
 Frequencies --   1081.0743              1133.6172              1204.9601
 Red. masses --      2.3190                 2.1436                 1.3925
 Frc consts  --      1.5968                 1.6231                 1.1912
 IR Inten    --      5.7586                25.5152                 4.1776

                     16                     17                     18
                      A                      A                      A
 Frequencies --   1248.5251              1348.2967              1363.3115
 Red. masses --      1.1491                 1.0952                 1.3025
 Frc consts  --      1.0554                 1.1731                 1.4263
 IR Inten    --     65.9991                21.3225                23.9856

                     19                     20                     21
                      A                      A                      A
 Frequencies --   1379.1698              1414.2272              1421.0184
 Red. masses --      1.2957                 1.3227                 1.5320
 Frc consts  --      1.4521                 1.5587                 1.8227
 IR Inten    --      8.3021                 2.4131                21.1244

                     22                     23                     24
                      A                      A                      A
 Frequencies --   1490.7847              1501.1506              2896.0380
 Red. masses --      1.0431                 1.0881                 1.0643
 Frc consts  --      1.3659                 1.4446                 5.2592
 IR Inten    --      6.0217                 7.8586                15.8587

                     25                     26                     27
                      A                      A                      A
 Frequencies --   2932.8377              2953.2987              3025.1957
 Red. masses --      1.0821                 1.0830                 1.0370
 Frc consts  --      5.4842                 5.5651                 5.5918
 IR Inten    --     11.4412                70.3874                20.8051

                     28                     29                     30
                      A                      A                      A
 Frequencies --   3081.9298              3118.1335              3832.4041
 Red. masses --      1.1011                 1.1005                 1.0663
 Frc consts  --      6.1619                 6.3042                 9.2276
 IR Inten    --     33.9912                13.7857                21.9454

 - Thermochemistry -
 -------------------
 Temperature   298.150 Kelvin.  Pressure   1.00000 Atm.
 Atom     1 has atomic number  6 and mass  12.00000

 Molecular mass:    75.04460 amu.
 Principal axes and moments of inertia in atomic units:
                           1         2         3
     Eigenvalues --   260.88000 428.60366 546.28770
           X            0.99654  -0.07315   0.03944
           Y            0.07416   0.99693  -0.02503
           Z           -0.03749   0.02787   0.99891
 This molecule is an asymmetric top.
 Rotational symmetry number  1.
 Rotational temperatures (Kelvin)      0.33201     0.20208     0.15855
 Rotational constants (GHZ):           6.91790     4.21075     3.30365
 Zero-point vibrational energy     257534.9 (Joules/Mol)
                                   61.55232 (Kcal/Mol)
 Warning -- explicit consideration of   7 degrees of freedom as
           vibrations may cause significant error
 Vibrational temperatures:    170.26   356.89   370.87   406.62   494.58
          (Kelvin)            606.43   758.60   962.96  1157.08  1342.51
                             1442.41  1470.60  1555.42  1631.02  1733.67
                             1796.35  1939.90  1961.50  1984.32  2034.76
                             2044.53  2144.91  2159.82  4166.75  4219.70
                             4249.14  4352.58  4434.21  4486.30  5513.97

 Zero-point correction=                           0.098090 (Hartree/Particle)
 Thermal correction to Energy=                    0.104341
 Thermal correction to Enthalpy=                  0.105285
 Thermal correction to Gibbs Free Energy=         0.068338
 Sum of electronic and zero-point Energies=           -268.879355
 Sum of electronic and thermal Energies=              -268.873104
 Sum of electronic and thermal Enthalpies=            -268.872160
 Sum of electronic and thermal Free Energies=         -268.909107

                     E (Thermal)             CV                S
                      KCal/Mol        Cal/Mol-Kelvin    Cal/Mol-Kelvin
 Total                   65.475             21.674             77.762
 Electronic               0.000              0.000              1.377
 Translational            0.889              2.981             38.862
 Rotational               0.889              2.981             25.616
 Vibrational             63.698             15.712             11.907
 Vibration     1          0.608              1.934              3.127
 Vibration     2          0.662              1.766              1.744
 Vibration     3          0.667              1.750              1.677
 Vibration     4          0.682              1.706              1.518
 Vibration     5          0.722              1.588              1.195
 Vibration     6          0.784              1.424              0.887
 Vibration     7          0.882              1.190              0.593

 Optimization completed.
    -- Stationary point found.
 Normal termination of Gaussian 16 at Mon Feb 12 22:01:59 2018.

 -----------------------------------------------------------
 #N Geom=AllCheck Guess=TCheck SCRF=Check CCSD(T)/6-31+G(d')
 -----------------------------------------------------------

 Structure from the checkpoint file:  "/rc_scratch/jasm3285/Gau-68798.chk"
 -------------------
 Title Card Required
 -------------------
 Charge =  0 Multiplicity = 2

 SCF Done:  E(UHF) =  -267.349147760     a.u. after   14 cycles
 E2 =    -0.7324179429D+00 EUMP2 =    -0.26808156570308D+03
 CCSD(T)= -0.26815679832D+03
 95\CCSD(T)=-268.1567983\S2=0.758748\S2-1=0.752052\S2A=0.75006\RMSD=8.4
 Normal termination of Gaussian 16 at Mon Feb 12 22:10:22 2018.

 -----------------------------------------------------
 #N Geom=AllCheck Guess=TCheck SCRF=Check MP4SDQ/CBSB4
 -----------------------------------------------------

 Structure from the checkpoint file:  "/rc_scratch/jasm3285/Gau-68798.chk"
 -------------------
 Title Card Required
 -------------------
 Charge =  0 Multiplicity = 2

 SCF Done:  E(UHF) =  -267.365821739     a.u. after    7 cycles
 E2 =    -0.7785134209D+00 EUMP2 =    -0.26814433516012D+03
 Normal termination of Gaussian 16 at Mon Feb 12 22:10:56 2018.

 ----------------------------------------------------------------------
 #N Geom=AllCheck Guess=TCheck SCRF=Check MP2/CBSB3 CBSExtrap=(NMin=10,
 MinPop)
 ----------------------------------------------------------------------

 Structure from the checkpoint file:  "/rc_scratch/jasm3285/Gau-68798.chk"
 -------------------
 Title Card Required
 -------------------
 Charge =  0 Multiplicity = 2

                         Standard orientation:
 ---------------------------------------------------------------------
 Center     Atomic      Atomic             Coordinates (Angstroms)
 Number     Number       Type             X           Y           Z
 ---------------------------------------------------------------------
      1          6           0       -1.001618    1.218485   -0.106667
      2          1           0       -0.583229    1.370870   -1.102682
      3          1           0       -0.707381    2.058144    0.530425
      4          1           0       -2.093725    1.223564   -0.177126
      5          6           0       -0.504842   -0.107330    0.460135
      6          1           0       -0.883312   -0.239553    1.486638
      7          6           0        1.024329   -0.180241    0.522566
      8          1           0        1.409742    0.452138    1.347683
      9          1           0        1.337593   -1.204741    0.794714
     10          8           0       -0.905191   -1.213831   -0.350606
     11          1           0       -1.856227   -1.159406   -0.484316
     12          8           0        1.688856    0.203019   -0.605836
 ---------------------------------------------------------------------

 SCF Done:  E(UHF) =  -267.444824711     a.u. after   37 cycles
 E2 =    -0.9356279408D+00 EUMP2 =    -0.26838045265146D+03
 E2(CBS)=      -1.031674 CBS-Int=       0.030665 OIii=       8.280060

 The electronic state is 2-A.
 Alpha  occ. eigenvalues --  -20.61866 -20.56248 -11.28894 -11.28150 -11.22247
 Alpha  occ. eigenvalues --   -1.41241  -1.36474  -1.03903  -0.93505  -0.80638
 Alpha  occ. eigenvalues --   -0.72390  -0.69152  -0.65272  -0.63734  -0.60228
 Alpha  occ. eigenvalues --   -0.56138  -0.54399  -0.51616  -0.50649  -0.45655
 Alpha  occ. eigenvalues --   -0.45100
 Alpha virt. eigenvalues --    0.03689   0.05377   0.05754   0.06563   0.08021
 Alpha virt. eigenvalues --    0.08614   0.09599   0.12209   0.13884   0.15061
 Alpha virt. eigenvalues --    0.16469   0.17305   0.17702   0.17850   0.18958

  Beta  occ. eigenvalues --  -20.57839 -20.56241 -11.28895 -11.28444 -11.22252
  Beta  occ. eigenvalues --   -1.36870  -1.27928  -1.03124  -0.92055  -0.79289
  Beta  occ. eigenvalues --   -0.70624  -0.65505  -0.62693  -0.58302  -0.56807
  Beta  occ. eigenvalues --   -0.54736  -0.53933  -0.51039  -0.45096  -0.43299
  Beta virt. eigenvalues --    0.03694   0.05373   0.05758   0.06558   0.07912
  Beta virt. eigenvalues --    0.08616   0.09184   0.09758   0.12358   0.14620
  Beta virt. eigenvalues --    0.15240   0.16502   0.17465   0.17759   0.18326

 Mulliken charges and spin densities:
               1          2
     1  C   -0.232014   0.004807
     2  H    0.114992  -0.000891
     3  H    0.056178  -0.000296
     4  H    0.043541  -0.000275
     5  C    0.112211  -0.001273
     6  H    0.041563  -0.002588
     7  C   -0.079272  -0.109147
     8  H    0.082679   0.075329
     9  H    0.102119   0.051869
    10  O   -0.354652   0.000940
    11  H    0.263293   0.000356
    12  O   -0.150637   0.981170
 Sum of Mulliken charges =   0.00000   1.00000

 Dipole moment (field-independent basis, Debye):
    X=             -1.9377    Y=              0.8933    Z=              2.0951  Tot=              2.9903
 Quadrupole moment (field-independent basis, Debye-Ang):
   XX=            -29.4971   YY=            -32.7016   ZZ=            -31.2937
   XY=             -0.2282   XZ=              2.9873   YZ=             -0.0898

 1\1\GINC-BNODE0305\SP\UMP2-FC\CBSB3\C3H7O2(2)\JASM3285\12-Feb-2018\0\\
 #N Geom=AllCheck Guess=TCheck SCRF=Check MP2/CBSB3 CBSExtrap=(NMin=10,
 MinPop)\\Title Card Required\\0,2\C,0,-1.0566167968,1.1334934806,-0.21
 98053044\H,0,-0.2703540455,1.8276905209,-0.5201347949\H,0,-1.577513683
 2,1.5469967076,0.6491998422\H,0,-1.7843950251,1.0500395845,-1.03286335
 95\C,0,-0.4449203194,-0.2271335206,0.0969896402\H,0,-1.2292145996,-0.9
 15552972,0.4510986756\C,0,0.6233875513,-0.1471782923,1.1923902417\H,0,
 0.1516913612,0.0034898218,2.1843914287\H,0,1.1398429389,-1.120451606,1

 Normal termination of Gaussian 16 at Mon Feb 12 22:15:35 2018.
