 Gaussian 16, Revision A.03,
 Gaussian 16:  ES64L-G16RevA.03 25-Dec-2016

 ----------------------------------------------------------------------
 # opt=(modredundant,noeigentest) cbs-qb3 scf=qc geom=connectivity ccsd
 =maxcyc=1000 optcyc=100
 ----------------------------------------------------------------------

 -------------------
 Title Card Required
 -------------------
 Symbolic Z-matrix:
 Charge =  0 Multiplicity = 2

 SCF Done:  E(UB3LYP) =  -268.977445191     a.u. after    8 cycles
 Optimization completed.
    -- Stationary point found.
 SCF Done:  E(UB3LYP) =  -268.973901481     a.u. after   27 cycles
 SCF Done:  E(UB3LYP) =  -268.976474084     a.u. after   14 cycles
 SCF Done:  E(UB3LYP) =  -268.976736825     a.u. after   10 cycles
 SCF Done:  E(UB3LYP) =  -268.976789598     a.u. after    5 cycles
 SCF Done:  E(UB3LYP) =  -268.976799380     a.u. after    3 cycles
 SCF Done:  E(UB3LYP) =  -268.976800300     a.u. after    3 cycles
 Optimization completed.
 SCF Done:  E(UB3LYP) =  -268.972203975     a.u. after   23 cycles
 SCF Done:  E(UB3LYP) =  -268.975417026     a.u. after   17 cycles
 SCF Done:  E(UB3LYP) =  -268.975543598     a.u. after   10 cycles
 SCF Done:  E(UB3LYP) =  -268.976548971     a.u. after    3 cycles
 SCF Done:  E(UB3LYP) =  -268.974916645     a.u. after   31 cycles
 SCF Done:  E(UB3LYP) =  -268.977349140     a.u. after   17 cycles
 SCF Done:  E(UB3LYP) =  -268.977429274     a.u. after    7 cycles
 SCF Done:  E(UB3LYP) =  -268.977444985     a.u. after    3 cycles
 SCF Done:  E(UB3LYP) =  -268.977445172     a.u. after    3 cycles
    -- Stationary point found.
 Normal termination of Gaussian 16 at Tue Feb 13 00:22:10 2018.

 ---------------------------------------------------------
 #N Geom=AllCheck Guess=TCheck SCRF=Check B3LYP/CBSB7 Freq
 ---------------------------------------------------------

 Structure from the checkpoint file:  "/rc_scratch/jasm3285/Gau-68651.chk"
 -------------------
 Title Card Required
 -------------------
 Charge =  0 Multiplicity = 2

 SCF Done:  E(UB3LYP) =  -268.977445172     a.u. after    1 cycles

  Exact polarizability:  44.553  -0.412  42.676   0.950  -0.319  40.944
 Approx polarizability:  56.911   1.479  55.389  -1.445   0.072  59.461

                      1                      2                      3
                      A                      A                      A
 Frequencies --    118.3907               248.0730               257.7086
 Red. masses --      3.2811                 1.5197                 1.2164
 Frc consts  --      0.0271                 0.0551                 0.0476
 IR Inten    --      3.4768                 7.7233                45.9171

                      4                      5                      6
                      A                      A                      A
 Frequencies --    282.5487               343.6716               421.4643
 Red. masses --      1.5919                 1.8282                 2.8070
 Frc consts  --      0.0749                 0.1272                 0.2938
 IR Inten    --     49.6524                21.2208                14.0851

                      7                      8                      9
                      A                      A                      A
 Frequencies --    526.8737               669.2477               804.1981
 Red. masses --      2.1256                 2.8839                 3.1188
 Frc consts  --      0.3476                 0.7610                 1.1884
 IR Inten    --     19.0296                15.3752                 8.1540

                     10                     11                     12
                      A                      A                      A
 Frequencies --    933.0831              1002.4285              1022.0693
 Red. masses --      1.9496                 2.2708                 1.6630
 Frc consts  --      1.0001                 1.3444                 1.0235
 IR Inten    --     10.4467                37.5877                36.4961

                     13                     14                     15
                      A                      A                      A
 Frequencies --   1081.0240              1133.5848              1204.9665
 Red. masses --      2.3174                 2.1434                 1.3927
 Frc consts  --      1.5956                 1.6228                 1.1914
 IR Inten    --      5.7606                25.5264                 4.1890

                     16                     17                     18
                      A                      A                      A
 Frequencies --   1248.5079              1348.2733              1363.3588
 Red. masses --      1.1490                 1.0953                 1.3021
 Frc consts  --      1.0553                 1.1731                 1.4260
 IR Inten    --     65.9849                21.3221                23.9656

                     19                     20                     21
                      A                      A                      A
 Frequencies --   1379.1542              1414.2184              1421.0128
 Red. masses --      1.2960                 1.3223                 1.5325
 Frc consts  --      1.4523                 1.5581                 1.8232
 IR Inten    --      8.3342                 2.4648                21.0506

                     22                     23                     24
                      A                      A                      A
 Frequencies --   1490.7834              1501.1525              2896.1857
 Red. masses --      1.0431                 1.0881                 1.0643
 Frc consts  --      1.3659                 1.4447                 5.2595
 IR Inten    --      6.0226                 7.8592                15.8704

                     25                     26                     27
                      A                      A                      A
 Frequencies --   2932.7621              2953.3151              3025.2047
 Red. masses --      1.0822                 1.0830                 1.0370
 Frc consts  --      5.4841                 5.5652                 5.5918
 IR Inten    --     11.4149                70.3750                20.7968

                     28                     29                     30
                      A                      A                      A
 Frequencies --   3081.9357              3118.1443              3832.4236
 Red. masses --      1.1011                 1.1005                 1.0663
 Frc consts  --      6.1620                 6.3043                 9.2277
 IR Inten    --     34.0014                13.7815                21.9581

 - Thermochemistry -
 -------------------
 Temperature   298.150 Kelvin.  Pressure   1.00000 Atm.
 Atom     1 has atomic number  6 and mass  12.00000

 Molecular mass:    75.04460 amu.
 Principal axes and moments of inertia in atomic units:
                           1         2         3
     Eigenvalues --   260.88293 428.62559 546.31409
           X            0.99654  -0.07314   0.03944
           Y            0.07416   0.99693  -0.02505
           Z           -0.03748   0.02789   0.99891
 This molecule is an asymmetric top.
 Rotational symmetry number  1.
 Rotational temperatures (Kelvin)      0.33200     0.20207     0.15854
 Rotational constants (GHZ):           6.91782     4.21053     3.30349
 Zero-point vibrational energy     257530.7 (Joules/Mol)
                                   61.55131 (Kcal/Mol)
 Warning -- explicit consideration of   7 degrees of freedom as
           vibrations may cause significant error
 Vibrational temperatures:    170.34   356.92   370.79   406.52   494.47
          (Kelvin)            606.39   758.05   962.90  1157.06  1342.50
                             1442.27  1470.53  1555.35  1630.98  1733.68
                             1796.32  1939.86  1961.57  1984.30  2034.74
                             2044.52  2144.90  2159.82  4166.97  4219.59
                             4249.16  4352.59  4434.22  4486.31  5514.00

 Zero-point correction=                           0.098088 (Hartree/Particle)
 Thermal correction to Energy=                    0.104340
 Thermal correction to Enthalpy=                  0.105284
 Thermal correction to Gibbs Free Energy=         0.068336
 Sum of electronic and zero-point Energies=           -268.879357
 Sum of electronic and thermal Energies=              -268.873105
 Sum of electronic and thermal Enthalpies=            -268.872161
 Sum of electronic and thermal Free Energies=         -268.909109

                     E (Thermal)             CV                S
                      KCal/Mol        Cal/Mol-Kelvin    Cal/Mol-Kelvin
 Total                   65.474             21.675             77.764
 Electronic               0.000              0.000              1.377
 Translational            0.889              2.981             38.862
 Rotational               0.889              2.981             25.616
 Vibrational             63.697             15.714             11.908
 Vibration     1          0.609              1.934              3.126
 Vibration     2          0.662              1.766              1.744
 Vibration     3          0.667              1.750              1.677
 Vibration     4          0.682              1.706              1.518
 Vibration     5          0.722              1.588              1.195
 Vibration     6          0.784              1.424              0.887
 Vibration     7          0.882              1.191              0.594

 Optimization completed.
    -- Stationary point found.
 Normal termination of Gaussian 16 at Tue Feb 13 00:27:08 2018.

 -----------------------------------------------------------
 #N Geom=AllCheck Guess=TCheck SCRF=Check CCSD(T)/6-31+G(d')
 -----------------------------------------------------------

 Structure from the checkpoint file:  "/rc_scratch/jasm3285/Gau-68651.chk"
 -------------------
 Title Card Required
 -------------------
 Charge =  0 Multiplicity = 2

 SCF Done:  E(UHF) =  -267.349147959     a.u. after   16 cycles
 E2 =    -0.7324182583D+00 EUMP2 =    -0.26808156621757D+03
 CCSD(T)= -0.26815679904D+03
 1\CCSD(T)=-268.156799\S2=0.758748\S2-1=0.752052\S2A=0.75006\RMSD=9.365
 Normal termination of Gaussian 16 at Tue Feb 13 00:35:16 2018.

 -----------------------------------------------------
 #N Geom=AllCheck Guess=TCheck SCRF=Check MP4SDQ/CBSB4
 -----------------------------------------------------

 Structure from the checkpoint file:  "/rc_scratch/jasm3285/Gau-68651.chk"
 -------------------
 Title Card Required
 -------------------
 Charge =  0 Multiplicity = 2

 SCF Done:  E(UHF) =  -267.365822179     a.u. after    7 cycles
 E2 =    -0.7785136259D+00 EUMP2 =    -0.26814433580475D+03
 Normal termination of Gaussian 16 at Tue Feb 13 00:35:49 2018.

 ----------------------------------------------------------------------
 #N Geom=AllCheck Guess=TCheck SCRF=Check MP2/CBSB3 CBSExtrap=(NMin=10,
 MinPop)
 ----------------------------------------------------------------------

 Structure from the checkpoint file:  "/rc_scratch/jasm3285/Gau-68651.chk"
 -------------------
 Title Card Required
 -------------------
 Charge =  0 Multiplicity = 2

                         Standard orientation:
 ---------------------------------------------------------------------
 Center     Atomic      Atomic             Coordinates (Angstroms)
 Number     Number       Type             X           Y           Z
 ---------------------------------------------------------------------
      1          6           0       -1.001142    1.218747   -0.106635
      2          1           0       -0.582820    1.370975   -1.102701
      3          1           0       -0.706427    2.058268    0.530426
      4          1           0       -2.093254    1.224302   -0.176883
      5          6           0       -0.504835   -0.107302    0.460106
      6          1           0       -0.883275   -0.239396    1.486636
      7          6           0        1.024295   -0.180473    0.522554
      8          1           0        1.409748    0.451687    1.347797
      9          1           0        1.337495   -1.205045    0.794546
     10          8           0       -0.905760   -1.213659   -0.350608
     11          1           0       -1.856774   -1.158770   -0.484279
     12          8           0        1.688935    0.202677   -0.605854
 ---------------------------------------------------------------------

 SCF Done:  E(UHF) =  -267.444825116     a.u. after   37 cycles
 E2 =    -0.9356278094D+00 EUMP2 =    -0.26838045292495D+03
 E2(CBS)=      -1.031674 CBS-Int=       0.030665 OIii=       8.280048

 The electronic state is 2-A.
 Alpha  occ. eigenvalues --  -20.61866 -20.56248 -11.28894 -11.28151 -11.22247
 Alpha  occ. eigenvalues --   -1.41240  -1.36473  -1.03905  -0.93504  -0.80638
 Alpha  occ. eigenvalues --   -0.72388  -0.69154  -0.65271  -0.63733  -0.60227
 Alpha  occ. eigenvalues --   -0.56138  -0.54399  -0.51616  -0.50649  -0.45655
 Alpha  occ. eigenvalues --   -0.45100
 Alpha virt. eigenvalues --    0.03689   0.05377   0.05754   0.06563   0.08021
 Alpha virt. eigenvalues --    0.08614   0.09599   0.12209   0.13884   0.15061
 Alpha virt. eigenvalues --    0.16469   0.17304   0.17701   0.17850   0.18958

  Beta  occ. eigenvalues --  -20.57839 -20.56241 -11.28896 -11.28445 -11.22252
  Beta  occ. eigenvalues --   -1.36869  -1.27927  -1.03125  -0.92056  -0.79290
  Beta  occ. eigenvalues --   -0.70623  -0.65504  -0.62693  -0.58302  -0.56811
  Beta  occ. eigenvalues --   -0.54734  -0.53933  -0.51038  -0.45096  -0.43301
  Beta virt. eigenvalues --    0.03694   0.05373   0.05758   0.06558   0.07912
  Beta virt. eigenvalues --    0.08615   0.09184   0.09758   0.12358   0.14620
  Beta virt. eigenvalues --    0.15241   0.16502   0.17465   0.17758   0.18325

 Mulliken charges and spin densities:
               1          2
     1  C   -0.232017   0.004836
     2  H    0.115002  -0.000894
     3  H    0.056187  -0.000298
     4  H    0.043542  -0.000276
     5  C    0.112211  -0.001307
     6  H    0.041571  -0.002587
     7  C   -0.079312  -0.109137
     8  H    0.082694   0.075268
     9  H    0.102136   0.051926
    10  O   -0.354691   0.000935
    11  H    0.263301   0.000355
    12  O   -0.150624   0.981177
 Sum of Mulliken charges =   0.00000   1.00000

 Dipole moment (field-independent basis, Debye):
    X=             -1.9370    Y=              0.8940    Z=              2.0952  Tot=              2.9902
 Quadrupole moment (field-independent basis, Debye-Ang):
   XX=            -29.4970   YY=            -32.7022   ZZ=            -31.2940
   XY=             -0.2311   XZ=              2.9870   YZ=             -0.0911

 1\1\GINC-BNODE0305\SP\UMP2-FC\CBSB3\C3H7O2(2)\JASM3285\13-Feb-2018\0\\
 #N Geom=AllCheck Guess=TCheck SCRF=Check MP2/CBSB3 CBSExtrap=(NMin=10,
 MinPop)\\Title Card Required\\0,2\C,0,-1.0255429937,0.4916903803,-0.80
 85828538\H,0,-0.8481601882,-0.4359821033,-1.354726821\H,0,-0.569580193
 8,1.318181356,-1.3622165395\H,0,-2.1033285888,0.6767658333,-0.76616401
 14\C,0,-0.4430438363,0.3782907342,0.5963216984\H,0,-0.5740467087,1.331
 9956802,1.1327109713\C,0,1.0560300501,0.0618883185,0.5836872617\H,0,1.
 6391217442,0.956843099,0.2865595742\H,0,1.3989989453,-0.1584715174,1.6

 Normal termination of Gaussian 16 at Tue Feb 13 00:40:12 2018.
